 TITLE = " SCM "
 VARIABLES = "Z", "U"
 ZONE T ="standard", I = 32, DATAPACKING = POINT, SOLUTIONTIME = 3000.039860
1.562500e-02 -2.976951e-01
4.687500e-02 -2.504129e-01
7.812500e-02 -2.221431e-01
1.093750e-01 -1.995428e-01
1.406250e-01 -1.796895e-01
1.718750e-01 -1.614513e-01
2.031250e-01 -1.442659e-01
2.343750e-01 -1.278117e-01
2.656250e-01 -1.118863e-01
2.968750e-01 -9.635355e-02
3.281250e-01 -8.111647e-02
3.593750e-01 -6.610266e-02
3.906250e-01 -5.125573e-02
4.218750e-01 -3.652987e-02
4.531250e-01 -2.188618e-02
4.843750e-01 -7.290180e-03
5.156250e-01 7.290180e-03
5.468750e-01 2.188618e-02
5.781250e-01 3.652987e-02
6.093750e-01 5.125573e-02
6.406250e-01 6.610266e-02
6.718750e-01 8.111647e-02
7.031250e-01 9.635355e-02
7.343750e-01 1.118863e-01
7.656250e-01 1.278117e-01
7.968750e-01 1.442659e-01
8.281250e-01 1.614513e-01
8.593750e-01 1.796895e-01
8.906250e-01 1.995428e-01
9.218750e-01 2.221431e-01
9.531250e-01 2.504129e-01
9.843750e-01 2.976951e-01

 ZONE T ="DNS", I = 512, DATAPACKING = POINT, SOLUTIONTIME = 3000.000000
2.940019e-04 -4.949552e-01
8.851371e-04 -4.848178e-01
1.482565e-03 -4.746152e-01
2.086344e-03 -4.644192e-01
2.696535e-03 -4.543260e-01
3.313197e-03 -4.444391e-01
3.936392e-03 -4.348531e-01
4.566179e-03 -4.256449e-01
5.202621e-03 -4.168696e-01
5.845778e-03 -4.085612e-01
6.495713e-03 -4.007355e-01
7.152488e-03 -3.933933e-01
7.816167e-03 -3.865239e-01
8.486811e-03 -3.801085e-01
9.164484e-03 -3.741227e-01
9.849250e-03 -3.685391e-01
1.054117e-02 -3.633288e-01
1.124032e-02 -3.584625e-01
1.194675e-02 -3.539120e-01
1.266054e-02 -3.496502e-01
1.338174e-02 -3.456519e-01
1.411043e-02 -3.418937e-01
1.484667e-02 -3.383541e-01
1.559052e-02 -3.350137e-01
1.634206e-02 -3.318547e-01
1.710135e-02 -3.288611e-01
1.786845e-02 -3.260185e-01
1.864345e-02 -3.233139e-01
1.942639e-02 -3.207357e-01
2.021736e-02 -3.182732e-01
2.101642e-02 -3.159171e-01
2.182365e-02 -3.136587e-01
2.263910e-02 -3.114903e-01
2.346285e-02 -3.094049e-01
2.429498e-02 -3.073961e-01
2.513554e-02 -3.054581e-01
2.598461e-02 -3.035857e-01
2.684227e-02 -3.017740e-01
2.770857e-02 -3.000185e-01
2.858360e-02 -2.983151e-01
2.946743e-02 -2.966602e-01
3.036012e-02 -2.950501e-01
3.126175e-02 -2.934816e-01
3.217239e-02 -2.919519e-01
3.309212e-02 -2.904582e-01
3.402099e-02 -2.889980e-01
3.495910e-02 -2.875689e-01
3.590651e-02 -2.861688e-01
3.686329e-02 -2.847957e-01
3.782951e-02 -2.834477e-01
3.880526e-02 -2.821231e-01
3.979060e-02 -2.808202e-01
4.078561e-02 -2.795373e-01
4.179036e-02 -2.782733e-01
4.280492e-02 -2.770266e-01
4.382937e-02 -2.757961e-01
4.486378e-02 -2.745805e-01
4.590824e-02 -2.733788e-01
4.696280e-02 -2.721899e-01
4.802754e-02 -2.710129e-01
4.910254e-02 -2.698468e-01
5.018787e-02 -2.686909e-01
5.128361e-02 -2.675442e-01
5.238983e-02 -2.664061e-01
5.350661e-02 -2.652759e-01
5.463401e-02 -2.641529e-01
5.577211e-02 -2.630363e-01
5.692100e-02 -2.619258e-01
5.808073e-02 -2.608207e-01
5.925138e-02 -2.597205e-01
6.043303e-02 -2.586246e-01
6.162576e-02 -2.575327e-01
6.282962e-02 -2.564441e-01
6.404470e-02 -2.553586e-01
6.527108e-02 -2.542757e-01
6.650881e-02 -2.531950e-01
6.775798e-02 -2.521161e-01
6.901866e-02 -2.510388e-01
7.029092e-02 -2.499626e-01
7.157482e-02 -2.488873e-01
7.287045e-02 -2.478127e-01
7.417788e-02 -2.467385e-01
7.549716e-02 -2.456644e-01
7.682838e-02 -2.445901e-01
7.817161e-02 -2.435155e-01
7.952691e-02 -2.424402e-01
8.089435e-02 -2.413641e-01
8.227400e-02 -2.402869e-01
8.366594e-02 -2.392085e-01
8.507022e-02 -2.381286e-01
8.648692e-02 -2.370470e-01
8.791611e-02 -2.359637e-01
8.935784e-02 -2.348783e-01
9.081218e-02 -2.337907e-01
9.227920e-02 -2.327007e-01
9.375897e-02 -2.316082e-01
9.525155e-02 -2.305130e-01
9.675699e-02 -2.294151e-01
9.827538e-02 -2.283142e-01
9.980676e-02 -2.272103e-01
1.013512e-01 -2.261031e-01
1.029087e-01 -2.249927e-01
1.044795e-01 -2.238789e-01
1.060634e-01 -2.227616e-01
1.076607e-01 -2.216407e-01
1.092713e-01 -2.205161e-01
1.108953e-01 -2.193878e-01
1.125327e-01 -2.182557e-01
1.141837e-01 -2.171198e-01
1.158483e-01 -2.159799e-01
1.175265e-01 -2.148360e-01
1.192183e-01 -2.136879e-01
1.209239e-01 -2.125356e-01
1.226432e-01 -2.113790e-01
1.243764e-01 -2.102182e-01
1.261234e-01 -2.090529e-01
1.278843e-01 -2.078832e-01
1.296592e-01 -2.067090e-01
1.314481e-01 -2.055302e-01
1.332510e-01 -2.043467e-01
1.350680e-01 -2.031585e-01
1.368992e-01 -2.019655e-01
1.387445e-01 -2.007678e-01
1.406040e-01 -1.995653e-01
1.424777e-01 -1.983581e-01
1.443657e-01 -1.971461e-01
1.462680e-01 -1.959295e-01
1.481846e-01 -1.947081e-01
1.501155e-01 -1.934820e-01
1.520609e-01 -1.922511e-01
1.540207e-01 -1.910154e-01
1.559949e-01 -1.897746e-01
1.579835e-01 -1.885289e-01
1.599867e-01 -1.872782e-01
1.620043e-01 -1.860223e-01
1.640365e-01 -1.847615e-01
1.660832e-01 -1.834956e-01
1.681444e-01 -1.822248e-01
1.702203e-01 -1.809488e-01
1.723106e-01 -1.796678e-01
1.744156e-01 -1.783818e-01
1.765352e-01 -1.770906e-01
1.786693e-01 -1.757944e-01
1.808181e-01 -1.744931e-01
1.829814e-01 -1.731866e-01
1.851594e-01 -1.718751e-01
1.873519e-01 -1.705583e-01
1.895590e-01 -1.692363e-01
1.917808e-01 -1.679092e-01
1.940171e-01 -1.665769e-01
1.962679e-01 -1.652394e-01
1.985333e-01 -1.638967e-01
2.008132e-01 -1.625488e-01
2.031077e-01 -1.611959e-01
2.054166e-01 -1.598381e-01
2.077401e-01 -1.584754e-01
2.100779e-01 -1.571077e-01
2.124303e-01 -1.557353e-01
2.147969e-01 -1.543579e-01
2.171780e-01 -1.529756e-01
2.195734e-01 -1.515882e-01
2.219831e-01 -1.501957e-01
2.244070e-01 -1.487981e-01
2.268451e-01 -1.473953e-01
2.292975e-01 -1.459875e-01
2.317639e-01 -1.445746e-01
2.342444e-01 -1.431569e-01
2.367389e-01 -1.417343e-01
2.392474e-01 -1.403068e-01
2.417699e-01 -1.388744e-01
2.443061e-01 -1.374369e-01
2.468562e-01 -1.359944e-01
2.494200e-01 -1.345465e-01
2.519975e-01 -1.330932e-01
2.545885e-01 -1.316345e-01
2.571931e-01 -1.301703e-01
2.598112e-01 -1.287009e-01
2.624426e-01 -1.272261e-01
2.650873e-01 -1.257460e-01
2.677452e-01 -1.242608e-01
2.704163e-01 -1.227705e-01
2.731003e-01 -1.212752e-01
2.757974e-01 -1.197748e-01
2.785073e-01 -1.182694e-01
2.812299e-01 -1.167591e-01
2.839653e-01 -1.152442e-01
2.867132e-01 -1.137247e-01
2.894735e-01 -1.122005e-01
2.922462e-01 -1.106716e-01
2.950312e-01 -1.091380e-01
2.978283e-01 -1.075999e-01
3.006374e-01 -1.060573e-01
3.034584e-01 -1.045104e-01
3.062912e-01 -1.029591e-01
3.091357e-01 -1.014032e-01
3.119917e-01 -9.984304e-02
3.148591e-01 -9.827840e-02
3.177378e-01 -9.670942e-02
3.206277e-01 -9.513629e-02
3.235285e-01 -9.355936e-02
3.264403e-01 -9.197897e-02
3.293628e-01 -9.039526e-02
3.322959e-01 -8.880828e-02
3.352394e-01 -8.721800e-02
3.381933e-01 -8.562440e-02
3.411573e-01 -8.402746e-02
3.441313e-01 -8.242723e-02
3.471152e-01 -8.082371e-02
3.501087e-01 -7.921699e-02
3.531118e-01 -7.760702e-02
3.561243e-01 -7.599368e-02
3.591460e-01 -7.437671e-02
3.621767e-01 -7.275584e-02
3.652163e-01 -7.113094e-02
3.682646e-01 -6.950199e-02
3.713214e-01 -6.786913e-02
3.743866e-01 -6.623253e-02
3.774599e-01 -6.459231e-02
3.805413e-01 -6.294860e-02
3.836305e-01 -6.130167e-02
3.867273e-01 -5.965177e-02
3.898315e-01 -5.799899e-02
3.929431e-01 -5.634327e-02
3.960617e-01 -5.468462e-02
3.991872e-01 -5.302315e-02
4.023194e-01 -5.135907e-02
4.054580e-01 -4.969263e-02
4.086030e-01 -4.802411e-02
4.117541e-01 -4.635378e-02
4.149111e-01 -4.468177e-02
4.180738e-01 -4.300796e-02
4.212419e-01 -4.133228e-02
4.244154e-01 -3.965479e-02
4.275940e-01 -3.797567e-02
4.307775e-01 -3.629507e-02
4.339656e-01 -3.461298e-02
4.371582e-01 -3.292937e-02
4.403551e-01 -3.124433e-02
4.435560e-01 -2.955794e-02
4.467608e-01 -2.787040e-02
4.499692e-01 -2.618178e-02
4.531810e-01 -2.449203e-02
4.563959e-01 -2.280116e-02
4.596139e-01 -2.110933e-02
4.628346e-01 -1.941677e-02
4.660578e-01 -1.772356e-02
4.692834e-01 -1.602969e-02
4.725111e-01 -1.433525e-02
4.757406e-01 -1.264033e-02
4.789718e-01 -1.094493e-02
4.822045e-01 -9.249062e-03
4.854384e-01 -7.552797e-03
4.886733e-01 -5.856263e-03
4.919089e-01 -4.159532e-03
4.951451e-01 -2.462639e-03
4.983817e-01 -7.656930e-04
5.016183e-01 9.312655e-04
5.048549e-01 2.628100e-03
5.080911e-01 4.324605e-03
5.113267e-01 6.020640e-03
5.145617e-01 7.716089e-03
5.177955e-01 9.410829e-03
5.210282e-01 1.110491e-02
5.242594e-01 1.279847e-02
5.274889e-01 1.449166e-02
5.307166e-01 1.618448e-02
5.339422e-01 1.787699e-02
5.371654e-01 1.956932e-02
5.403861e-01 2.126136e-02
5.436041e-01 2.295293e-02
5.468191e-01 2.464387e-02
5.500308e-01 2.633414e-02
5.532392e-01 2.802378e-02
5.564440e-01 2.971280e-02
5.596449e-01 3.140087e-02
5.628418e-01 3.308773e-02
5.660344e-01 3.477325e-02
5.692225e-01 3.645733e-02
5.724060e-01 3.813984e-02
5.755846e-01 3.982062e-02
5.787581e-01 4.149945e-02
5.819262e-01 4.317601e-02
5.850889e-01 4.485006e-02
5.882459e-01 4.652142e-02
5.913970e-01 4.819001e-02
5.945420e-01 4.985579e-02
5.976807e-01 5.151887e-02
6.008128e-01 5.317933e-02
6.039383e-01 5.483709e-02
6.070569e-01 5.649190e-02
6.101685e-01 5.814344e-02
6.132727e-01 5.979147e-02
6.163695e-01 6.143603e-02
6.194587e-01 6.307723e-02
6.225401e-01 6.471514e-02
6.256135e-01 6.634988e-02
6.286786e-01 6.798143e-02
6.317354e-01 6.960961e-02
6.347837e-01 7.123429e-02
6.378233e-01 7.285540e-02
6.408540e-01 7.447292e-02
6.438757e-01 7.608695e-02
6.468881e-01 7.769773e-02
6.498913e-01 7.930529e-02
6.528848e-01 8.090960e-02
6.558686e-01 8.251058e-02
6.588427e-01 8.410815e-02
6.618067e-01 8.570227e-02
6.647606e-01 8.729292e-02
6.677041e-01 8.888021e-02
6.706372e-01 9.046412e-02
6.735597e-01 9.204461e-02
6.764715e-01 9.362172e-02
6.793723e-01 9.519537e-02
6.822622e-01 9.676547e-02
6.851409e-01 9.833191e-02
6.880083e-01 9.989464e-02
6.908643e-01 1.014537e-01
6.937088e-01 1.030091e-01
6.965416e-01 1.045604e-01
6.993626e-01 1.061076e-01
7.021717e-01 1.076504e-01
7.049688e-01 1.091886e-01
7.077538e-01 1.107225e-01
7.105265e-01 1.122518e-01
7.132869e-01 1.137767e-01
7.160348e-01 1.152970e-01
7.187700e-01 1.168124e-01
7.214927e-01 1.183230e-01
7.242026e-01 1.198287e-01
7.268996e-01 1.213294e-01
7.295837e-01 1.228251e-01
7.322547e-01 1.243159e-01
7.349127e-01 1.258018e-01
7.375574e-01 1.272828e-01
7.401888e-01 1.287588e-01
7.428069e-01 1.302297e-01
7.454115e-01 1.316954e-01
7.480025e-01 1.331560e-01
7.505800e-01 1.346115e-01
7.531438e-01 1.360620e-01
7.556939e-01 1.375076e-01
7.582301e-01 1.389483e-01
7.607526e-01 1.403841e-01
7.632611e-01 1.418152e-01
7.657556e-01 1.432415e-01
7.682361e-01 1.446629e-01
7.707025e-01 1.460794e-01
7.731549e-01 1.474908e-01
7.755930e-01 1.488968e-01
7.780169e-01 1.502975e-01
7.804266e-01 1.516928e-01
7.828220e-01 1.530827e-01
7.852031e-01 1.544673e-01
7.875698e-01 1.558467e-01
7.899221e-01 1.572207e-01
7.922599e-01 1.585895e-01
7.945833e-01 1.599530e-01
7.968923e-01 1.613111e-01
7.991867e-01 1.626641e-01
8.014667e-01 1.640117e-01
8.037321e-01 1.653541e-01
8.059829e-01 1.666912e-01
8.082193e-01 1.680230e-01
8.104410e-01 1.693493e-01
8.126481e-01 1.706702e-01
8.148407e-01 1.719858e-01
8.170186e-01 1.732960e-01
8.191819e-01 1.746008e-01
8.213307e-01 1.759002e-01
8.234649e-01 1.771943e-01
8.255844e-01 1.784831e-01
8.276894e-01 1.797667e-01
8.297797e-01 1.810451e-01
8.318555e-01 1.823184e-01
8.339168e-01 1.835866e-01
8.359635e-01 1.848498e-01
8.379956e-01 1.861081e-01
8.400133e-01 1.873615e-01
8.420165e-01 1.886100e-01
8.440051e-01 1.898537e-01
8.459793e-01 1.910926e-01
8.479391e-01 1.923267e-01
8.498845e-01 1.935561e-01
8.518155e-01 1.947806e-01
8.537320e-01 1.960003e-01
8.556343e-01 1.972153e-01
8.575224e-01 1.984254e-01
8.593960e-01 1.996309e-01
8.612555e-01 2.008316e-01
8.631008e-01 2.020276e-01
8.649319e-01 2.032189e-01
8.667490e-01 2.044055e-01
8.685519e-01 2.055875e-01
8.703408e-01 2.067650e-01
8.721157e-01 2.079379e-01
8.738766e-01 2.091064e-01
8.756236e-01 2.102706e-01
8.773568e-01 2.114305e-01
8.790761e-01 2.125862e-01
8.807817e-01 2.137378e-01
8.824735e-01 2.148854e-01
8.841517e-01 2.160291e-01
8.858163e-01 2.171689e-01
8.874673e-01 2.183049e-01
8.891047e-01 2.194370e-01
8.907287e-01 2.205656e-01
8.923393e-01 2.216905e-01
8.939366e-01 2.228119e-01
8.955206e-01 2.239300e-01
8.970913e-01 2.250446e-01
8.986489e-01 2.261560e-01
9.001932e-01 2.272640e-01
9.017246e-01 2.283689e-01
9.032430e-01 2.294708e-01
9.047484e-01 2.305697e-01
9.062411e-01 2.316658e-01
9.077208e-01 2.327593e-01
9.091878e-01 2.338501e-01
9.106421e-01 2.349386e-01
9.120839e-01 2.360248e-01
9.135131e-01 2.371088e-01
9.149297e-01 2.381908e-01
9.163340e-01 2.392710e-01
9.177260e-01 2.403497e-01
9.191056e-01 2.414270e-01
9.204731e-01 2.425031e-01
9.218284e-01 2.435783e-01
9.231716e-01 2.446526e-01
9.245028e-01 2.457264e-01
9.258221e-01 2.467999e-01
9.271296e-01 2.478735e-01
9.284252e-01 2.489473e-01
9.297091e-01 2.500217e-01
9.309813e-01 2.510970e-01
9.322420e-01 2.521736e-01
9.334912e-01 2.532519e-01
9.347289e-01 2.543320e-01
9.359553e-01 2.554144e-01
9.371704e-01 2.564996e-01
9.383743e-01 2.575877e-01
9.395670e-01 2.586793e-01
9.407486e-01 2.597747e-01
9.419193e-01 2.608745e-01
9.430790e-01 2.619791e-01
9.442279e-01 2.630891e-01
9.453660e-01 2.642050e-01
9.464934e-01 2.653275e-01
9.476101e-01 2.664571e-01
9.487164e-01 2.675945e-01
9.498121e-01 2.687404e-01
9.508975e-01 2.698957e-01
9.519725e-01 2.710610e-01
9.530372e-01 2.722372e-01
9.540918e-01 2.734253e-01
9.551362e-01 2.746262e-01
9.561706e-01 2.758409e-01
9.571950e-01 2.770706e-01
9.582096e-01 2.783163e-01
9.592144e-01 2.795793e-01
9.602094e-01 2.808610e-01
9.611948e-01 2.821629e-01
9.621705e-01 2.834863e-01
9.631367e-01 2.848330e-01
9.640934e-01 2.862048e-01
9.650409e-01 2.876034e-01
9.659790e-01 2.890311e-01
9.669079e-01 2.904899e-01
9.678276e-01 2.919823e-01
9.687383e-01 2.935106e-01
9.696399e-01 2.950777e-01
9.705325e-01 2.966866e-01
9.714164e-01 2.983404e-01
9.722915e-01 3.000425e-01
9.731578e-01 3.017968e-01
9.740154e-01 3.036073e-01
9.748645e-01 3.054785e-01
9.757050e-01 3.074152e-01
9.765372e-01 3.094227e-01
9.773609e-01 3.115068e-01
9.781764e-01 3.136738e-01
9.789836e-01 3.159308e-01
9.797826e-01 3.182855e-01
9.805737e-01 3.207466e-01
9.813566e-01 3.233234e-01
9.821315e-01 3.260266e-01
9.828987e-01 3.288678e-01
9.836580e-01 3.318600e-01
9.844095e-01 3.350177e-01
9.851533e-01 3.383568e-01
9.858896e-01 3.418951e-01
9.866183e-01 3.456521e-01
9.873395e-01 3.496493e-01
9.880532e-01 3.539098e-01
9.887596e-01 3.584593e-01
9.894588e-01 3.633249e-01
9.901507e-01 3.685345e-01
9.908355e-01 3.741176e-01
9.915132e-01 3.801030e-01
9.921838e-01 3.865181e-01
9.928475e-01 3.933873e-01
9.935043e-01 4.007296e-01
9.941542e-01 4.085557e-01
9.947973e-01 4.168641e-01
9.954338e-01 4.256396e-01
9.960636e-01 4.348485e-01
9.966868e-01 4.444350e-01
9.973035e-01 4.543221e-01
9.979137e-01 4.644162e-01
9.985175e-01 4.746133e-01
9.991149e-01 4.848166e-01
9.997060e-01 4.949547e-01

