 TITLE = "nse-3D [F(Y,Z)]"
 VARIABLES = "Y", "Z", "u'w'[y,z]"
 ZONE I = 64, J = 65, DATAPACKING = POINT, SOLUTIONTIME = 4000.003662
0.031250 0.000000 0.000000
0.093750 0.000000 0.000000
0.156250 0.000000 0.000000
0.218750 0.000000 0.000000
0.281250 0.000000 0.000000
0.343750 0.000000 0.000000
0.406250 0.000000 0.000000
0.468750 0.000000 0.000000
0.531250 0.000000 0.000000
0.593750 0.000000 0.000000
0.656250 0.000000 0.000000
0.718750 0.000000 0.000000
0.781250 0.000000 0.000000
0.843750 0.000000 0.000000
0.906250 0.000000 0.000000
0.968750 0.000000 0.000000
1.031250 0.000000 0.000000
1.093750 0.000000 0.000000
1.156250 0.000000 0.000000
1.218750 0.000000 0.000000
1.281250 0.000000 0.000000
1.343750 0.000000 0.000000
1.406250 0.000000 0.000000
1.468750 0.000000 0.000000
1.531250 0.000000 0.000000
1.593750 0.000000 0.000000
1.656250 0.000000 0.000000
1.718750 0.000000 0.000000
1.781250 0.000000 0.000000
1.843750 0.000000 0.000000
1.906250 0.000000 0.000000
1.968750 0.000000 0.000000
2.031250 0.000000 0.000000
2.093750 0.000000 0.000000
2.156250 0.000000 0.000000
2.218750 0.000000 0.000000
2.281250 0.000000 0.000000
2.343750 0.000000 0.000000
2.406250 0.000000 0.000000
2.468750 0.000000 0.000000
2.531250 0.000000 0.000000
2.593750 0.000000 0.000000
2.656250 0.000000 0.000000
2.718750 0.000000 0.000000
2.781250 0.000000 0.000000
2.843750 0.000000 0.000000
2.906250 0.000000 0.000000
2.968750 0.000000 0.000000
3.031250 0.000000 0.000000
3.093750 0.000000 0.000000
3.156250 0.000000 0.000000
3.218750 0.000000 0.000000
3.281250 0.000000 0.000000
3.343750 0.000000 0.000000
3.406250 0.000000 0.000000
3.468750 0.000000 0.000000
3.531250 0.000000 0.000000
3.593750 0.000000 0.000000
3.656250 0.000000 0.000000
3.718750 0.000000 0.000000
3.781250 0.000000 0.000000
3.843750 0.000000 0.000000
3.906250 0.000000 0.000000
3.968750 0.000000 0.000000
0.031250 0.004883 -0.000001
0.093750 0.004883 -0.000001
0.156250 0.004883 -0.000001
0.218750 0.004883 -0.000001
0.281250 0.004883 -0.000001
0.343750 0.004883 -0.000001
0.406250 0.004883 -0.000001
0.468750 0.004883 -0.000001
0.531250 0.004883 -0.000001
0.593750 0.004883 -0.000001
0.656250 0.004883 -0.000001
0.718750 0.004883 -0.000001
0.781250 0.004883 -0.000001
0.843750 0.004883 -0.000001
0.906250 0.004883 -0.000001
0.968750 0.004883 -0.000001
1.031250 0.004883 -0.000001
1.093750 0.004883 -0.000001
1.156250 0.004883 -0.000001
1.218750 0.004883 -0.000001
1.281250 0.004883 -0.000001
1.343750 0.004883 -0.000001
1.406250 0.004883 -0.000001
1.468750 0.004883 -0.000001
1.531250 0.004883 -0.000001
1.593750 0.004883 -0.000001
1.656250 0.004883 -0.000001
1.718750 0.004883 -0.000001
1.781250 0.004883 -0.000001
1.843750 0.004883 -0.000001
1.906250 0.004883 -0.000001
1.968750 0.004883 -0.000001
2.031250 0.004883 -0.000001
2.093750 0.004883 -0.000001
2.156250 0.004883 -0.000001
2.218750 0.004883 -0.000001
2.281250 0.004883 -0.000001
2.343750 0.004883 -0.000001
2.406250 0.004883 -0.000001
2.468750 0.004883 -0.000001
2.531250 0.004883 -0.000001
2.593750 0.004883 -0.000001
2.656250 0.004883 -0.000001
2.718750 0.004883 -0.000001
2.781250 0.004883 -0.000001
2.843750 0.004883 -0.000001
2.906250 0.004883 -0.000001
2.968750 0.004883 -0.000001
3.031250 0.004883 -0.000001
3.093750 0.004883 -0.000001
3.156250 0.004883 -0.000001
3.218750 0.004883 -0.000001
3.281250 0.004883 -0.000001
3.343750 0.004883 -0.000001
3.406250 0.004883 -0.000001
3.468750 0.004883 -0.000001
3.531250 0.004883 -0.000001
3.593750 0.004883 -0.000001
3.656250 0.004883 -0.000001
3.718750 0.004883 -0.000001
3.781250 0.004883 -0.000001
3.843750 0.004883 -0.000001
3.906250 0.004883 -0.000001
3.968750 0.004883 -0.000001
0.031250 0.010193 -0.000005
0.093750 0.010193 -0.000005
0.156250 0.010193 -0.000005
0.218750 0.010193 -0.000005
0.281250 0.010193 -0.000005
0.343750 0.010193 -0.000005
0.406250 0.010193 -0.000005
0.468750 0.010193 -0.000004
0.531250 0.010193 -0.000005
0.593750 0.010193 -0.000005
0.656250 0.010193 -0.000005
0.718750 0.010193 -0.000005
0.781250 0.010193 -0.000004
0.843750 0.010193 -0.000005
0.906250 0.010193 -0.000006
0.968750 0.010193 -0.000006
1.031250 0.010193 -0.000006
1.093750 0.010193 -0.000006
1.156250 0.010193 -0.000005
1.218750 0.010193 -0.000006
1.281250 0.010193 -0.000006
1.343750 0.010193 -0.000005
1.406250 0.010193 -0.000006
1.468750 0.010193 -0.000006
1.531250 0.010193 -0.000006
1.593750 0.010193 -0.000006
1.656250 0.010193 -0.000005
1.718750 0.010193 -0.000006
1.781250 0.010193 -0.000006
1.843750 0.010193 -0.000006
1.906250 0.010193 -0.000006
1.968750 0.010193 -0.000006
2.031250 0.010193 -0.000006
2.093750 0.010193 -0.000006
2.156250 0.010193 -0.000005
2.218750 0.010193 -0.000005
2.281250 0.010193 -0.000004
2.343750 0.010193 -0.000005
2.406250 0.010193 -0.000005
2.468750 0.010193 -0.000005
2.531250 0.010193 -0.000006
2.593750 0.010193 -0.000006
2.656250 0.010193 -0.000006
2.718750 0.010193 -0.000005
2.781250 0.010193 -0.000005
2.843750 0.010193 -0.000006
2.906250 0.010193 -0.000005
2.968750 0.010193 -0.000005
3.031250 0.010193 -0.000006
3.093750 0.010193 -0.000006
3.156250 0.010193 -0.000006
3.218750 0.010193 -0.000006
3.281250 0.010193 -0.000006
3.343750 0.010193 -0.000007
3.406250 0.010193 -0.000007
3.468750 0.010193 -0.000006
3.531250 0.010193 -0.000006
3.593750 0.010193 -0.000006
3.656250 0.010193 -0.000005
3.718750 0.010193 -0.000006
3.781250 0.010193 -0.000006
3.843750 0.010193 -0.000005
3.906250 0.010193 -0.000005
3.968750 0.010193 -0.000006
0.031250 0.015964 -0.000020
0.093750 0.015964 -0.000019
0.156250 0.015964 -0.000017
0.218750 0.015964 -0.000017
0.281250 0.015964 -0.000017
0.343750 0.015964 -0.000019
0.406250 0.015964 -0.000018
0.468750 0.015964 -0.000017
0.531250 0.015964 -0.000019
0.593750 0.015964 -0.000019
0.656250 0.015964 -0.000018
0.718750 0.015964 -0.000017
0.781250 0.015964 -0.000016
0.843750 0.015964 -0.000017
0.906250 0.015964 -0.000020
0.968750 0.015964 -0.000021
1.031250 0.015964 -0.000022
1.093750 0.015964 -0.000021
1.156250 0.015964 -0.000020
1.218750 0.015964 -0.000021
1.281250 0.015964 -0.000022
1.343750 0.015964 -0.000020
1.406250 0.015964 -0.000021
1.468750 0.015964 -0.000023
1.531250 0.015964 -0.000023
1.593750 0.015964 -0.000021
1.656250 0.015964 -0.000020
1.718750 0.015964 -0.000020
1.781250 0.015964 -0.000021
1.843750 0.015964 -0.000021
1.906250 0.015964 -0.000021
1.968750 0.015964 -0.000020
2.031250 0.015964 -0.000023
2.093750 0.015964 -0.000023
2.156250 0.015964 -0.000020
2.218750 0.015964 -0.000019
2.281250 0.015964 -0.000017
2.343750 0.015964 -0.000018
2.406250 0.015964 -0.000019
2.468750 0.015964 -0.000019
2.531250 0.015964 -0.000021
2.593750 0.015964 -0.000022
2.656250 0.015964 -0.000022
2.718750 0.015964 -0.000020
2.781250 0.015964 -0.000019
2.843750 0.015964 -0.000021
2.906250 0.015964 -0.000019
2.968750 0.015964 -0.000020
3.031250 0.015964 -0.000022
3.093750 0.015964 -0.000022
3.156250 0.015964 -0.000022
3.218750 0.015964 -0.000022
3.281250 0.015964 -0.000021
3.343750 0.015964 -0.000024
3.406250 0.015964 -0.000024
3.468750 0.015964 -0.000023
3.531250 0.015964 -0.000020
3.593750 0.015964 -0.000020
3.656250 0.015964 -0.000020
3.718750 0.015964 -0.000022
3.781250 0.015964 -0.000022
3.843750 0.015964 -0.000020
3.906250 0.015964 -0.000019
3.968750 0.015964 -0.000020
0.031250 0.022229 -0.000049
0.093750 0.022229 -0.000047
0.156250 0.022229 -0.000042
0.218750 0.022229 -0.000041
0.281250 0.022229 -0.000042
0.343750 0.022229 -0.000045
0.406250 0.022229 -0.000044
0.468750 0.022229 -0.000042
0.531250 0.022229 -0.000046
0.593750 0.022229 -0.000046
0.656250 0.022229 -0.000044
0.718750 0.022229 -0.000042
0.781250 0.022229 -0.000040
0.843750 0.022229 -0.000041
0.906250 0.022229 -0.000050
0.968750 0.022229 -0.000051
1.031250 0.022229 -0.000054
1.093750 0.022229 -0.000052
1.156250 0.022229 -0.000050
1.218750 0.022229 -0.000051
1.281250 0.022229 -0.000053
1.343750 0.022229 -0.000050
1.406250 0.022229 -0.000052
1.468750 0.022229 -0.000055
1.531250 0.022229 -0.000055
1.593750 0.022229 -0.000051
1.656250 0.022229 -0.000050
1.718750 0.022229 -0.000050
1.781250 0.022229 -0.000052
1.843750 0.022229 -0.000052
1.906250 0.022229 -0.000052
1.968750 0.022229 -0.000050
2.031250 0.022229 -0.000057
2.093750 0.022229 -0.000055
2.156250 0.022229 -0.000050
2.218750 0.022229 -0.000048
2.281250 0.022229 -0.000041
2.343750 0.022229 -0.000043
2.406250 0.022229 -0.000047
2.468750 0.022229 -0.000047
2.531250 0.022229 -0.000051
2.593750 0.022229 -0.000053
2.656250 0.022229 -0.000055
2.718750 0.022229 -0.000049
2.781250 0.022229 -0.000047
2.843750 0.022229 -0.000051
2.906250 0.022229 -0.000048
2.968750 0.022229 -0.000049
3.031250 0.022229 -0.000053
3.093750 0.022229 -0.000055
3.156250 0.022229 -0.000054
3.218750 0.022229 -0.000053
3.281250 0.022229 -0.000052
3.343750 0.022229 -0.000058
3.406250 0.022229 -0.000058
3.468750 0.022229 -0.000055
3.531250 0.022229 -0.000051
3.593750 0.022229 -0.000051
3.656250 0.022229 -0.000049
3.718750 0.022229 -0.000055
3.781250 0.022229 -0.000055
3.843750 0.022229 -0.000049
3.906250 0.022229 -0.000048
3.968750 0.022229 -0.000050
0.031250 0.029023 -0.000096
0.093750 0.029023 -0.000091
0.156250 0.029023 -0.000082
0.218750 0.029023 -0.000080
0.281250 0.029023 -0.000081
0.343750 0.029023 -0.000088
0.406250 0.029023 -0.000087
0.468750 0.029023 -0.000082
0.531250 0.029023 -0.000090
0.593750 0.029023 -0.000088
0.656250 0.029023 -0.000085
0.718750 0.029023 -0.000083
0.781250 0.029023 -0.000079
0.843750 0.029023 -0.000081
0.906250 0.029023 -0.000096
0.968750 0.029023 -0.000097
1.031250 0.029023 -0.000103
1.093750 0.029023 -0.000101
1.156250 0.029023 -0.000097
1.218750 0.029023 -0.000099
1.281250 0.029023 -0.000101
1.343750 0.029023 -0.000098
1.406250 0.029023 -0.000100
1.468750 0.029023 -0.000106
1.531250 0.029023 -0.000107
1.593750 0.029023 -0.000099
1.656250 0.029023 -0.000097
1.718750 0.029023 -0.000095
1.781250 0.029023 -0.000100
1.843750 0.029023 -0.000099
1.906250 0.029023 -0.000099
1.968750 0.029023 -0.000096
2.031250 0.029023 -0.000108
2.093750 0.029023 -0.000105
2.156250 0.029023 -0.000096
2.218750 0.029023 -0.000092
2.281250 0.029023 -0.000080
2.343750 0.029023 -0.000083
2.406250 0.029023 -0.000091
2.468750 0.029023 -0.000089
2.531250 0.029023 -0.000098
2.593750 0.029023 -0.000100
2.656250 0.029023 -0.000104
2.718750 0.029023 -0.000096
2.781250 0.029023 -0.000092
2.843750 0.029023 -0.000100
2.906250 0.029023 -0.000094
2.968750 0.029023 -0.000095
3.031250 0.029023 -0.000102
3.093750 0.029023 -0.000106
3.156250 0.029023 -0.000105
3.218750 0.029023 -0.000102
3.281250 0.029023 -0.000100
3.343750 0.029023 -0.000110
3.406250 0.029023 -0.000110
3.468750 0.029023 -0.000106
3.531250 0.029023 -0.000098
3.593750 0.029023 -0.000099
3.656250 0.029023 -0.000096
3.718750 0.029023 -0.000106
3.781250 0.029023 -0.000105
3.843750 0.029023 -0.000096
3.906250 0.029023 -0.000094
3.968750 0.029023 -0.000097
0.031250 0.036383 -0.000157
0.093750 0.036383 -0.000150
0.156250 0.036383 -0.000136
0.218750 0.036383 -0.000133
0.281250 0.036383 -0.000133
0.343750 0.036383 -0.000143
0.406250 0.036383 -0.000144
0.468750 0.036383 -0.000137
0.531250 0.036383 -0.000149
0.593750 0.036383 -0.000143
0.656250 0.036383 -0.000142
0.718750 0.036383 -0.000140
0.781250 0.036383 -0.000131
0.843750 0.036383 -0.000134
0.906250 0.036383 -0.000156
0.968750 0.036383 -0.000158
1.031250 0.036383 -0.000167
1.093750 0.036383 -0.000167
1.156250 0.036383 -0.000160
1.218750 0.036383 -0.000163
1.281250 0.036383 -0.000163
1.343750 0.036383 -0.000162
1.406250 0.036383 -0.000164
1.468750 0.036383 -0.000173
1.531250 0.036383 -0.000175
1.593750 0.036383 -0.000162
1.656250 0.036383 -0.000158
1.718750 0.036383 -0.000155
1.781250 0.036383 -0.000163
1.843750 0.036383 -0.000161
1.906250 0.036383 -0.000162
1.968750 0.036383 -0.000158
2.031250 0.036383 -0.000175
2.093750 0.036383 -0.000171
2.156250 0.036383 -0.000160
2.218750 0.036383 -0.000152
2.281250 0.036383 -0.000132
2.343750 0.036383 -0.000136
2.406250 0.036383 -0.000149
2.468750 0.036383 -0.000145
2.531250 0.036383 -0.000159
2.593750 0.036383 -0.000162
2.656250 0.036383 -0.000170
2.718750 0.036383 -0.000159
2.781250 0.036383 -0.000153
2.843750 0.036383 -0.000164
2.906250 0.036383 -0.000155
2.968750 0.036383 -0.000157
3.031250 0.036383 -0.000166
3.093750 0.036383 -0.000174
3.156250 0.036383 -0.000171
3.218750 0.036383 -0.000167
3.281250 0.036383 -0.000166
3.343750 0.036383 -0.000178
3.406250 0.036383 -0.000179
3.468750 0.036383 -0.000172
3.531250 0.036383 -0.000162
3.593750 0.036383 -0.000164
3.656250 0.036383 -0.000159
3.718750 0.036383 -0.000172
3.781250 0.036383 -0.000172
3.843750 0.036383 -0.000159
3.906250 0.036383 -0.000157
3.968750 0.036383 -0.000159
0.031250 0.044344 -0.000228
0.093750 0.044344 -0.000219
0.156250 0.044344 -0.000202
0.218750 0.044344 -0.000197
0.281250 0.044344 -0.000194
0.343750 0.044344 -0.000208
0.406250 0.044344 -0.000212
0.468750 0.044344 -0.000202
0.531250 0.044344 -0.000217
0.593750 0.044344 -0.000208
0.656250 0.044344 -0.000209
0.718750 0.044344 -0.000209
0.781250 0.044344 -0.000196
0.843750 0.044344 -0.000197
0.906250 0.044344 -0.000227
0.968750 0.044344 -0.000228
1.031250 0.044344 -0.000239
1.093750 0.044344 -0.000244
1.156250 0.044344 -0.000234
1.218750 0.044344 -0.000237
1.281250 0.044344 -0.000236
1.343750 0.044344 -0.000237
1.406250 0.044344 -0.000238
1.468750 0.044344 -0.000249
1.531250 0.044344 -0.000254
1.593750 0.044344 -0.000235
1.656250 0.044344 -0.000230
1.718750 0.044344 -0.000224
1.781250 0.044344 -0.000238
1.843750 0.044344 -0.000233
1.906250 0.044344 -0.000235
1.968750 0.044344 -0.000231
2.031250 0.044344 -0.000253
2.093750 0.044344 -0.000248
2.156250 0.044344 -0.000235
2.218750 0.044344 -0.000222
2.281250 0.044344 -0.000195
2.343750 0.044344 -0.000197
2.406250 0.044344 -0.000217
2.468750 0.044344 -0.000211
2.531250 0.044344 -0.000228
2.593750 0.044344 -0.000234
2.656250 0.044344 -0.000246
2.718750 0.044344 -0.000233
2.781250 0.044344 -0.000227
2.843750 0.044344 -0.000240
2.906250 0.044344 -0.000227
2.968750 0.044344 -0.000230
3.031250 0.044344 -0.000242
3.093750 0.044344 -0.000254
3.156250 0.044344 -0.000248
3.218750 0.044344 -0.000244
3.281250 0.044344 -0.000242
3.343750 0.044344 -0.000256
3.406250 0.044344 -0.000258
3.468750 0.044344 -0.000248
3.531250 0.044344 -0.000237
3.593750 0.044344 -0.000241
3.656250 0.044344 -0.000234
3.718750 0.044344 -0.000251
3.781250 0.044344 -0.000250
3.843750 0.044344 -0.000234
3.906250 0.044344 -0.000232
3.968750 0.044344 -0.000231
0.031250 0.052946 -0.000302
0.093750 0.052946 -0.000293
0.156250 0.052946 -0.000275
0.218750 0.052946 -0.000268
0.281250 0.052946 -0.000261
0.343750 0.052946 -0.000277
0.406250 0.052946 -0.000283
0.468750 0.052946 -0.000270
0.531250 0.052946 -0.000288
0.593750 0.052946 -0.000278
0.656250 0.052946 -0.000283
0.718750 0.052946 -0.000284
0.781250 0.052946 -0.000267
0.843750 0.052946 -0.000267
0.906250 0.052946 -0.000302
0.968750 0.052946 -0.000303
1.031250 0.052946 -0.000314
1.093750 0.052946 -0.000326
1.156250 0.052946 -0.000314
1.218750 0.052946 -0.000316
1.281250 0.052946 -0.000313
1.343750 0.052946 -0.000316
1.406250 0.052946 -0.000314
1.468750 0.052946 -0.000326
1.531250 0.052946 -0.000336
1.593750 0.052946 -0.000314
1.656250 0.052946 -0.000304
1.718750 0.052946 -0.000298
1.781250 0.052946 -0.000316
1.843750 0.052946 -0.000311
1.906250 0.052946 -0.000312
1.968750 0.052946 -0.000311
2.031250 0.052946 -0.000335
2.093750 0.052946 -0.000330
2.156250 0.052946 -0.000315
2.218750 0.052946 -0.000296
2.281250 0.052946 -0.000262
2.343750 0.052946 -0.000264
2.406250 0.052946 -0.000290
2.468750 0.052946 -0.000282
2.531250 0.052946 -0.000302
2.593750 0.052946 -0.000309
2.656250 0.052946 -0.000326
2.718750 0.052946 -0.000314
2.781250 0.052946 -0.000308
2.843750 0.052946 -0.000321
2.906250 0.052946 -0.000302
2.968750 0.052946 -0.000307
3.031250 0.052946 -0.000322
3.093750 0.052946 -0.000340
3.156250 0.052946 -0.000329
3.218750 0.052946 -0.000325
3.281250 0.052946 -0.000324
3.343750 0.052946 -0.000340
3.406250 0.052946 -0.000340
3.468750 0.052946 -0.000326
3.531250 0.052946 -0.000316
3.593750 0.052946 -0.000323
3.656250 0.052946 -0.000314
3.718750 0.052946 -0.000334
3.781250 0.052946 -0.000333
3.843750 0.052946 -0.000313
3.906250 0.052946 -0.000311
3.968750 0.052946 -0.000306
0.031250 0.062225 -0.000374
0.093750 0.062225 -0.000368
0.156250 0.062225 -0.000351
0.218750 0.062225 -0.000340
0.281250 0.062225 -0.000328
0.343750 0.062225 -0.000344
0.406250 0.062225 -0.000353
0.468750 0.062225 -0.000338
0.531250 0.062225 -0.000357
0.593750 0.062225 -0.000348
0.656250 0.062225 -0.000357
0.718750 0.062225 -0.000361
0.781250 0.062225 -0.000340
0.843750 0.062225 -0.000339
0.906250 0.062225 -0.000377
0.968750 0.062225 -0.000375
1.031250 0.062225 -0.000384
1.093750 0.062225 -0.000406
1.156250 0.062225 -0.000393
1.218750 0.062225 -0.000395
1.281250 0.062225 -0.000389
1.343750 0.062225 -0.000393
1.406250 0.062225 -0.000387
1.468750 0.062225 -0.000398
1.531250 0.062225 -0.000416
1.593750 0.062225 -0.000390
1.656250 0.062225 -0.000377
1.718750 0.062225 -0.000372
1.781250 0.062225 -0.000394
1.843750 0.062225 -0.000387
1.906250 0.062225 -0.000388
1.968750 0.062225 -0.000390
2.031250 0.062225 -0.000416
2.093750 0.062225 -0.000412
2.156250 0.062225 -0.000395
2.218750 0.062225 -0.000369
2.281250 0.062225 -0.000329
2.343750 0.062225 -0.000330
2.406250 0.062225 -0.000362
2.468750 0.062225 -0.000353
2.531250 0.062225 -0.000374
2.593750 0.062225 -0.000383
2.656250 0.062225 -0.000406
2.718750 0.062225 -0.000394
2.781250 0.062225 -0.000391
2.843750 0.062225 -0.000401
2.906250 0.062225 -0.000376
2.968750 0.062225 -0.000383
3.031250 0.062225 -0.000400
3.093750 0.062225 -0.000423
3.156250 0.062225 -0.000407
3.218750 0.062225 -0.000406
3.281250 0.062225 -0.000405
3.343750 0.062225 -0.000424
3.406250 0.062225 -0.000420
3.468750 0.062225 -0.000403
3.531250 0.062225 -0.000394
3.593750 0.062225 -0.000403
3.656250 0.062225 -0.000393
3.718750 0.062225 -0.000416
3.781250 0.062225 -0.000413
3.843750 0.062225 -0.000390
3.906250 0.062225 -0.000388
3.968750 0.062225 -0.000378
0.031250 0.072220 -0.000440
0.093750 0.072220 -0.000438
0.156250 0.072220 -0.000424
0.218750 0.072220 -0.000410
0.281250 0.072220 -0.000391
0.343750 0.072220 -0.000406
0.406250 0.072220 -0.000417
0.468750 0.072220 -0.000400
0.531250 0.072220 -0.000420
0.593750 0.072220 -0.000415
0.656250 0.072220 -0.000428
0.718750 0.072220 -0.000435
0.781250 0.072220 -0.000412
0.843750 0.072220 -0.000408
0.906250 0.072220 -0.000448
0.968750 0.072220 -0.000442
1.031250 0.072220 -0.000446
1.093750 0.072220 -0.000481
1.156250 0.072220 -0.000467
1.218750 0.072220 -0.000469
1.281250 0.072220 -0.000459
1.343750 0.072220 -0.000463
1.406250 0.072220 -0.000452
1.468750 0.072220 -0.000462
1.531250 0.072220 -0.000488
1.593750 0.072220 -0.000461
1.656250 0.072220 -0.000445
1.718750 0.072220 -0.000443
1.781250 0.072220 -0.000466
1.843750 0.072220 -0.000458
1.906250 0.072220 -0.000459
1.968750 0.072220 -0.000466
2.031250 0.072220 -0.000491
2.093750 0.072220 -0.000489
2.156250 0.072220 -0.000469
2.218750 0.072220 -0.000437
2.281250 0.072220 -0.000391
2.343750 0.072220 -0.000392
2.406250 0.072220 -0.000429
2.468750 0.072220 -0.000421
2.531250 0.072220 -0.000440
2.593750 0.072220 -0.000453
2.656250 0.072220 -0.000481
2.718750 0.072220 -0.000470
2.781250 0.072220 -0.000471
2.843750 0.072220 -0.000476
2.906250 0.072220 -0.000444
2.968750 0.072220 -0.000453
3.031250 0.072220 -0.000474
3.093750 0.072220 -0.000500
3.156250 0.072220 -0.000480
3.218750 0.072220 -0.000481
3.281250 0.072220 -0.000482
3.343750 0.072220 -0.000503
3.406250 0.072220 -0.000492
3.468750 0.072220 -0.000474
3.531250 0.072220 -0.000467
3.593750 0.072220 -0.000477
3.656250 0.072220 -0.000467
3.718750 0.072220 -0.000492
3.781250 0.072220 -0.000486
3.843750 0.072220 -0.000461
3.906250 0.072220 -0.000457
3.968750 0.072220 -0.000443
0.031250 0.082967 -0.000497
0.093750 0.082967 -0.000503
0.156250 0.082967 -0.000491
0.218750 0.082967 -0.000476
0.281250 0.082967 -0.000449
0.343750 0.082967 -0.000460
0.406250 0.082967 -0.000473
0.468750 0.082967 -0.000455
0.531250 0.082967 -0.000474
0.593750 0.082967 -0.000475
0.656250 0.082967 -0.000494
0.718750 0.082967 -0.000503
0.781250 0.082967 -0.000480
0.843750 0.082967 -0.000472
0.906250 0.082967 -0.000511
0.968750 0.082967 -0.000501
1.031250 0.082967 -0.000499
1.093750 0.082967 -0.000546
1.156250 0.082967 -0.000531
1.218750 0.082967 -0.000536
1.281250 0.082967 -0.000521
1.343750 0.082967 -0.000524
1.406250 0.082967 -0.000507
1.468750 0.082967 -0.000515
1.531250 0.082967 -0.000549
1.593750 0.082967 -0.000523
1.656250 0.082967 -0.000505
1.718750 0.082967 -0.000508
1.781250 0.082967 -0.000532
1.843750 0.082967 -0.000523
1.906250 0.082967 -0.000521
1.968750 0.082967 -0.000535
2.031250 0.082967 -0.000559
2.093750 0.082967 -0.000559
2.156250 0.082967 -0.000535
2.218750 0.082967 -0.000499
2.281250 0.082967 -0.000447
2.343750 0.082967 -0.000448
2.406250 0.082967 -0.000490
2.468750 0.082967 -0.000484
2.531250 0.082967 -0.000500
2.593750 0.082967 -0.000516
2.656250 0.082967 -0.000549
2.718750 0.082967 -0.000540
2.781250 0.082967 -0.000544
2.843750 0.082967 -0.000543
2.906250 0.082967 -0.000503
2.968750 0.082967 -0.000514
3.031250 0.082967 -0.000541
3.093750 0.082967 -0.000568
3.156250 0.082967 -0.000544
3.218750 0.082967 -0.000548
3.281250 0.082967 -0.000551
3.343750 0.082967 -0.000575
3.406250 0.082967 -0.000556
3.468750 0.082967 -0.000536
3.531250 0.082967 -0.000531
3.593750 0.082967 -0.000541
3.656250 0.082967 -0.000534
3.718750 0.082967 -0.000560
3.781250 0.082967 -0.000550
3.843750 0.082967 -0.000523
3.906250 0.082967 -0.000516
3.968750 0.082967 -0.000498
0.031250 0.094502 -0.000546
0.093750 0.094502 -0.000560
0.156250 0.094502 -0.000552
0.218750 0.094502 -0.000536
0.281250 0.094502 -0.000500
0.343750 0.094502 -0.000504
0.406250 0.094502 -0.000521
0.468750 0.094502 -0.000502
0.531250 0.094502 -0.000522
0.593750 0.094502 -0.000530
0.656250 0.094502 -0.000553
0.718750 0.094502 -0.000564
0.781250 0.094502 -0.000540
0.843750 0.094502 -0.000529
0.906250 0.094502 -0.000566
0.968750 0.094502 -0.000550
1.031250 0.094502 -0.000543
1.093750 0.094502 -0.000601
1.156250 0.094502 -0.000585
1.218750 0.094502 -0.000593
1.281250 0.094502 -0.000573
1.343750 0.094502 -0.000574
1.406250 0.094502 -0.000554
1.468750 0.094502 -0.000560
1.531250 0.094502 -0.000599
1.593750 0.094502 -0.000576
1.656250 0.094502 -0.000558
1.718750 0.094502 -0.000568
1.781250 0.094502 -0.000590
1.843750 0.094502 -0.000579
1.906250 0.094502 -0.000576
1.968750 0.094502 -0.000595
2.031250 0.094502 -0.000618
2.093750 0.094502 -0.000618
2.156250 0.094502 -0.000591
2.218750 0.094502 -0.000552
2.281250 0.094502 -0.000495
2.343750 0.094502 -0.000497
2.406250 0.094502 -0.000542
2.468750 0.094502 -0.000542
2.531250 0.094502 -0.000553
2.593750 0.094502 -0.000573
2.656250 0.094502 -0.000608
2.718750 0.094502 -0.000601
2.781250 0.094502 -0.000608
2.843750 0.094502 -0.000600
2.906250 0.094502 -0.000554
2.968750 0.094502 -0.000566
3.031250 0.094502 -0.000599
3.093750 0.094502 -0.000626
3.156250 0.094502 -0.000599
3.218750 0.094502 -0.000606
3.281250 0.094502 -0.000612
3.343750 0.094502 -0.000638
3.406250 0.094502 -0.000611
3.468750 0.094502 -0.000590
3.531250 0.094502 -0.000586
3.593750 0.094502 -0.000596
3.656250 0.094502 -0.000592
3.718750 0.094502 -0.000617
3.781250 0.094502 -0.000605
3.843750 0.094502 -0.000575
3.906250 0.094502 -0.000564
3.968750 0.094502 -0.000544
0.031250 0.106859 -0.000587
0.093750 0.106859 -0.000610
0.156250 0.106859 -0.000605
0.218750 0.106859 -0.000591
0.281250 0.106859 -0.000544
0.343750 0.106859 -0.000539
0.406250 0.106859 -0.000559
0.468750 0.106859 -0.000541
0.531250 0.106859 -0.000563
0.593750 0.106859 -0.000578
0.656250 0.106859 -0.000606
0.718750 0.106859 -0.000616
0.781250 0.106859 -0.000594
0.843750 0.106859 -0.000579
0.906250 0.106859 -0.000612
0.968750 0.106859 -0.000591
1.031250 0.106859 -0.000579
1.093750 0.106859 -0.000643
1.156250 0.106859 -0.000630
1.218750 0.106859 -0.000641
1.281250 0.106859 -0.000616
1.343750 0.106859 -0.000616
1.406250 0.106859 -0.000591
1.468750 0.106859 -0.000596
1.531250 0.106859 -0.000639
1.593750 0.106859 -0.000620
1.656250 0.106859 -0.000604
1.718750 0.106859 -0.000623
1.781250 0.106859 -0.000642
1.843750 0.106859 -0.000626
1.906250 0.106859 -0.000623
1.968750 0.106859 -0.000645
2.031250 0.106859 -0.000666
2.093750 0.106859 -0.000668
2.156250 0.106859 -0.000638
2.218750 0.106859 -0.000596
2.281250 0.106859 -0.000536
2.343750 0.106859 -0.000540
2.406250 0.106859 -0.000585
2.468750 0.106859 -0.000593
2.531250 0.106859 -0.000599
2.593750 0.106859 -0.000623
2.656250 0.106859 -0.000659
2.718750 0.106859 -0.000654
2.781250 0.106859 -0.000662
2.843750 0.106859 -0.000646
2.906250 0.106859 -0.000596
2.968750 0.106859 -0.000610
3.031250 0.106859 -0.000649
3.093750 0.106859 -0.000676
3.156250 0.106859 -0.000645
3.218750 0.106859 -0.000655
3.281250 0.106859 -0.000666
3.343750 0.106859 -0.000692
3.406250 0.106859 -0.000657
3.468750 0.106859 -0.000635
3.531250 0.106859 -0.000631
3.593750 0.106859 -0.000641
3.656250 0.106859 -0.000640
3.718750 0.106859 -0.000666
3.781250 0.106859 -0.000651
3.843750 0.106859 -0.000619
3.906250 0.106859 -0.000603
3.968750 0.106859 -0.000582
0.031250 0.120068 -0.000620
0.093750 0.120068 -0.000653
0.156250 0.120068 -0.000652
0.218750 0.120068 -0.000640
0.281250 0.120068 -0.000583
0.343750 0.120068 -0.000566
0.406250 0.120068 -0.000587
0.468750 0.120068 -0.000572
0.531250 0.120068 -0.000599
0.593750 0.120068 -0.000620
0.656250 0.120068 -0.000651
0.718750 0.120068 -0.000662
0.781250 0.120068 -0.000642
0.843750 0.120068 -0.000623
0.906250 0.120068 -0.000650
0.968750 0.120068 -0.000624
1.031250 0.120068 -0.000608
1.093750 0.120068 -0.000675
1.156250 0.120068 -0.000665
1.218750 0.120068 -0.000677
1.281250 0.120068 -0.000649
1.343750 0.120068 -0.000650
1.406250 0.120068 -0.000622
1.468750 0.120068 -0.000626
1.531250 0.120068 -0.000671
1.593750 0.120068 -0.000657
1.656250 0.120068 -0.000644
1.718750 0.120068 -0.000671
1.781250 0.120068 -0.000687
1.843750 0.120068 -0.000666
1.906250 0.120068 -0.000662
1.968750 0.120068 -0.000687
2.031250 0.120068 -0.000704
2.093750 0.120068 -0.000708
2.156250 0.120068 -0.000678
2.218750 0.120068 -0.000631
2.281250 0.120068 -0.000571
2.343750 0.120068 -0.000578
2.406250 0.120068 -0.000623
2.468750 0.120068 -0.000636
2.531250 0.120068 -0.000639
2.593750 0.120068 -0.000665
2.656250 0.120068 -0.000703
2.718750 0.120068 -0.000700
2.781250 0.120068 -0.000706
2.843750 0.120068 -0.000683
2.906250 0.120068 -0.000632
2.968750 0.120068 -0.000647
3.031250 0.120068 -0.000690
3.093750 0.120068 -0.000718
3.156250 0.120068 -0.000682
3.218750 0.120068 -0.000695
3.281250 0.120068 -0.000714
3.343750 0.120068 -0.000736
3.406250 0.120068 -0.000696
3.468750 0.120068 -0.000671
3.531250 0.120068 -0.000667
3.593750 0.120068 -0.000676
3.656250 0.120068 -0.000680
3.718750 0.120068 -0.000706
3.781250 0.120068 -0.000689
3.843750 0.120068 -0.000654
3.906250 0.120068 -0.000634
3.968750 0.120068 -0.000612
0.031250 0.134156 -0.000647
0.093750 0.134156 -0.000687
0.156250 0.134156 -0.000692
0.218750 0.134156 -0.000683
0.281250 0.134156 -0.000617
0.343750 0.134156 -0.000586
0.406250 0.134156 -0.000605
0.468750 0.134156 -0.000599
0.531250 0.134156 -0.000630
0.593750 0.134156 -0.000657
0.656250 0.134156 -0.000690
0.718750 0.134156 -0.000701
0.781250 0.134156 -0.000683
0.843750 0.134156 -0.000661
0.906250 0.134156 -0.000680
0.968750 0.134156 -0.000652
1.031250 0.134156 -0.000633
1.093750 0.134156 -0.000699
1.156250 0.134156 -0.000692
1.218750 0.134156 -0.000703
1.281250 0.134156 -0.000675
1.343750 0.134156 -0.000678
1.406250 0.134156 -0.000646
1.468750 0.134156 -0.000652
1.531250 0.134156 -0.000697
1.593750 0.134156 -0.000687
1.656250 0.134156 -0.000680
1.718750 0.134156 -0.000714
1.781250 0.134156 -0.000727
1.843750 0.134156 -0.000700
1.906250 0.134156 -0.000694
1.968750 0.134156 -0.000721
2.031250 0.134156 -0.000733
2.093750 0.134156 -0.000740
2.156250 0.134156 -0.000710
2.218750 0.134156 -0.000658
2.281250 0.134156 -0.000600
2.343750 0.134156 -0.000611
2.406250 0.134156 -0.000655
2.468750 0.134156 -0.000672
2.531250 0.134156 -0.000673
2.593750 0.134156 -0.000699
2.656250 0.134156 -0.000741
2.718750 0.134156 -0.000740
2.781250 0.134156 -0.000742
2.843750 0.134156 -0.000711
2.906250 0.134156 -0.000661
2.968750 0.134156 -0.000679
3.031250 0.134156 -0.000726
3.093750 0.134156 -0.000755
3.156250 0.134156 -0.000711
3.218750 0.134156 -0.000728
3.281250 0.134156 -0.000755
3.343750 0.134156 -0.000773
3.406250 0.134156 -0.000729
3.468750 0.134156 -0.000702
3.531250 0.134156 -0.000697
3.593750 0.134156 -0.000704
3.656250 0.134156 -0.000712
3.718750 0.134156 -0.000740
3.781250 0.134156 -0.000720
3.843750 0.134156 -0.000682
3.906250 0.134156 -0.000657
3.968750 0.134156 -0.000636
0.031250 0.149146 -0.000668
0.093750 0.149146 -0.000716
0.156250 0.149146 -0.000726
0.218750 0.149146 -0.000720
0.281250 0.149146 -0.000647
0.343750 0.149146 -0.000600
0.406250 0.149146 -0.000618
0.468750 0.149146 -0.000621
0.531250 0.149146 -0.000655
0.593750 0.149146 -0.000690
0.656250 0.149146 -0.000723
0.718750 0.149146 -0.000733
0.781250 0.149146 -0.000717
0.843750 0.149146 -0.000694
0.906250 0.149146 -0.000703
0.968750 0.149146 -0.000675
1.031250 0.149146 -0.000655
1.093750 0.149146 -0.000717
1.156250 0.149146 -0.000713
1.218750 0.149146 -0.000719
1.281250 0.149146 -0.000695
1.343750 0.149146 -0.000701
1.406250 0.149146 -0.000666
1.468750 0.149146 -0.000675
1.531250 0.149146 -0.000717
1.593750 0.149146 -0.000713
1.656250 0.149146 -0.000712
1.718750 0.149146 -0.000751
1.781250 0.149146 -0.000760
1.843750 0.149146 -0.000729
1.906250 0.149146 -0.000719
1.968750 0.149146 -0.000749
2.031250 0.149146 -0.000755
2.093750 0.149146 -0.000766
2.156250 0.149146 -0.000736
2.218750 0.149146 -0.000678
2.281250 0.149146 -0.000625
2.343750 0.149146 -0.000640
2.406250 0.149146 -0.000683
2.468750 0.149146 -0.000701
2.531250 0.149146 -0.000701
2.593750 0.149146 -0.000727
2.656250 0.149146 -0.000775
2.718750 0.149146 -0.000774
2.781250 0.149146 -0.000773