 TITLE = "nse-3D [F_i(Z), i=1 .. 9]"
 VARIABLES = "Z", "TKE balance", "TKE production", "TKE diffusion", "TKE exchange balance", "TKE heat flux", "TKE dissipation", "TKE iso-dissipation", "TKE transport", "TKE pressure work"
 ZONE I = 64, DATAPACKING = POINT, SOLUTIONTIME = 4000.003662
2.441364e-03 -3.625937e-07 6.780396e-07 3.460316e-05 1.455192e-11 -2.520950e-09 -3.564129e-05 -1.094603e-03 1.712365e-06 3.289080e-05
7.538072e-03 -3.523237e-07 1.144411e-05 9.502279e-05 1.455192e-11 -2.597625e-08 -1.067933e-04 -9.877745e-04 3.147093e-05 6.355187e-05
1.307889e-02 -4.444155e-07 5.382706e-05 1.979733e-04 0.000000e+00 -1.118127e-07 -2.521330e-04 -9.140770e-04 1.275689e-04 7.040441e-05
1.909683e-02 -6.242481e-07 1.493195e-04 3.338408e-04 0.000000e+00 -3.112155e-07 -4.834733e-04 -8.318527e-04 2.709591e-04 6.288161e-05
2.562631e-02 -5.987822e-07 3.033932e-04 4.297640e-04 3.637979e-12 -6.646501e-07 -7.330913e-04 -7.512901e-04 3.807480e-04 4.901600e-05
3.270293e-02 -5.413312e-07 4.967637e-04 4.248800e-04 1.455192e-11 -1.185098e-06 -9.209999e-04 -6.908069e-04 3.904179e-04 3.446213e-05
4.036331e-02 -4.243338e-07 6.927574e-04 3.193374e-04 -2.000888e-11 -1.853772e-06 -1.010665e-03 -6.580336e-04 2.972630e-04 2.207442e-05
4.864483e-02 -3.173482e-07 8.543031e-04 1.593821e-04 1.364242e-11 -2.627927e-06 -1.011375e-03 -6.470717e-04 1.467931e-04 1.258897e-05
5.758523e-02 -1.247390e-07 9.582330e-04 -5.478614e-08 7.048584e-12 -3.454214e-06 -9.548487e-04 -6.456923e-04 -5.808741e-06 5.753955e-06
6.722230e-02 1.076842e-08 9.998069e-04 -1.216648e-04 1.364242e-11 -4.281473e-06 -8.738500e-04 -6.430081e-04 -1.227394e-04 1.074603e-06
7.759330e-02 1.487788e-07 9.883523e-04 -1.927975e-04 9.094947e-13 -5.069136e-06 -7.903369e-04 -6.331521e-04 -1.907785e-04 -2.018992e-06
8.873448e-02 2.296874e-07 9.395299e-04 -2.189442e-04 -1.818989e-12 -5.790218e-06 -7.145659e-04 -6.148705e-04 -2.147779e-04 -4.166272e-06
1.006804e-01 2.620509e-07 8.690128e-04 -2.132280e-04 1.818989e-12 -6.430477e-06 -6.490923e-04 -5.896037e-04 -2.073835e-04 -5.844530e-06
1.134632e-01 2.597808e-07 7.892523e-04 -1.889724e-04 7.275958e-12 -6.986113e-06 -5.930340e-04 -5.597728e-04 -1.817357e-04 -7.236662e-06
1.271118e-01 2.372544e-07 7.087177e-04 -1.566129e-04 -7.275958e-12 -7.460974e-06 -5.444065e-04 -5.275053e-04 -1.482281e-04 -8.384838e-06
1.416512e-01 1.977896e-07 6.324928e-04 -1.230580e-04 3.637979e-12 -7.862941e-06 -5.013741e-04 -4.946038e-04 -1.138840e-04 -9.173980e-06
1.571013e-01 1.619337e-07 5.633091e-04 -9.242864e-05 3.637979e-12 -8.200767e-06 -4.625177e-04 -4.625470e-04 -8.311247e-05 -9.316167e-06
1.734761e-01 1.238950e-07 5.023798e-04 -6.604817e-05 7.275958e-12 -8.483057e-06 -4.277246e-04 -4.320703e-04 -5.720987e-05 -8.838304e-06
1.907829e-01 9.103678e-08 4.496963e-04 -4.464079e-05 0.000000e+00 -8.718123e-06 -3.962463e-04 -4.033403e-04 -3.686065e-05 -7.780139e-06
2.090209e-01 6.787013e-08 4.045866e-04 -2.667559e-05 -7.275958e-12 -8.913692e-06 -3.689295e-04 -3.764172e-04 -2.026712e-05 -6.408468e-06
2.281809e-01 6.167102e-08 3.662269e-04 -1.195490e-05 0.000000e+00 -9.076148e-06 -3.451342e-04 -3.516446e-04 -6.837070e-06 -5.117835e-06
2.482443e-01 6.199116e-08 3.340741e-04 -8.652592e-07 -7.275958e-12 -9.210803e-06 -3.239361e-04 -3.295745e-04 3.036076e-06 -3.901335e-06
2.691821e-01 6.705523e-08 3.074440e-04 7.267726e-06 7.275958e-12 -9.322418e-06 -3.053222e-04 -3.101714e-04 1.016264e-05 -2.894919e-06
2.909552e-01 9.246287e-08 2.853844e-04 1.298164e-05 -7.275958e-12 -9.413821e-06 -2.888598e-04 -2.929063e-04 1.538004e-05 -2.398407e-06
3.135133e-01 1.284061e-07 2.672524e-04 1.713571e-05 7.275958e-12 -9.488019e-06 -2.747716e-04 -2.778185e-04 1.969398e-05 -2.558269e-06
3.367956e-01 1.676090e-07 2.526084e-04 1.957222e-05 -7.275958e-12 -9.549358e-06 -2.624636e-04 -2.652423e-04 2.270383e-05 -3.131605e-06
3.607308e-01 2.114684e-07 2.409145e-04 2.115591e-05 0.000000e+00 -9.600485e-06 -2.522584e-04 -2.550778e-04 2.496853e-05 -3.812625e-06
3.852373e-01 2.685410e-07 2.317219e-04 2.266378e-05 0.000000e+00 -9.641939e-06 -2.444752e-04 -2.470410e-04 2.678293e-05 -4.119147e-06
4.102251e-01 3.142632e-07 2.248235e-04 2.383405e-05 0.000000e+00 -9.673304e-06 -2.386700e-04 -2.408251e-04 2.788645e-05 -4.052400e-06
4.355958e-01 3.213354e-07 2.200861e-04 2.447010e-05 -7.275958e-12 -9.694824e-06 -2.345400e-04 -2.361284e-04 2.855011e-05 -4.080011e-06
4.612447e-01 3.006571e-07 2.172828e-04 2.436428e-05 7.275958e-12 -9.708206e-06 -2.316382e-04 -2.329689e-04 2.867748e-05 -4.313204e-06
4.870627e-01 2.845773e-07 2.162227e-04 2.384320e-05 7.275958e-12 -9.713802e-06 -2.300675e-04 -2.315046e-04 2.838250e-05 -4.539299e-06
5.129373e-01 3.080931e-07 2.167455e-04 2.374125e-05 0.000000e+00 -9.711584e-06 -2.304670e-04 -2.318055e-04 2.833208e-05 -4.590830e-06
5.387553e-01 3.293680e-07 2.187519e-04 2.396495e-05 0.000000e+00 -9.702278e-06 -2.326852e-04 -2.337016e-04 2.882619e-05 -4.861242e-06
5.644042e-01 3.199821e-07 2.221082e-04 2.385063e-05 0.000000e+00 -9.685864e-06 -2.359530e-04 -2.371068e-04 2.912690e-05 -5.276277e-06
5.897750e-01 2.871966e-07 2.270773e-04 2.349954e-05 0.000000e+00 -9.662222e-06 -2.406274e-04 -2.421670e-04 2.909717e-05 -5.597627e-06
6.147627e-01 2.368179e-07 2.342842e-04 2.253614e-05 7.275958e-12 -9.630665e-06 -2.469529e-04 -2.490644e-04 2.786497e-05 -5.328827e-06
6.392692e-01 1.873414e-07 2.440055e-04 2.117109e-05 0.000000e+00 -9.589930e-06 -2.553993e-04 -2.578055e-04 2.539136e-05 -4.220270e-06
6.632044e-01 1.643784e-07 2.562967e-04 1.944439e-05 0.000000e+00 -9.538732e-06 -2.660380e-04 -2.684184e-04 2.255480e-05 -3.110408e-06
6.864867e-01 1.488952e-07 2.713883e-04 1.666993e-05 0.000000e+00 -9.476639e-06 -2.784327e-04 -2.812368e-04 1.904136e-05 -2.371424e-06
7.090448e-01 1.415028e-07 2.895142e-04 1.283773e-05 0.000000e+00 -9.402817e-06 -2.928076e-04 -2.964042e-04 1.500932e-05 -2.171590e-06
7.308179e-01 1.458975e-07 3.112160e-04 7.670432e-06 7.275958e-12 -9.314162e-06 -3.094264e-04 -3.138539e-04 1.039977e-05 -2.729342e-06
7.517557e-01 1.527951e-07 3.372364e-04 4.927988e-07 7.275958e-12 -9.207000e-06 -3.283694e-04 -3.336999e-04 4.511186e-06 -4.018387e-06
7.718191e-01 1.669105e-07 3.682646e-04 -9.070671e-06 0.000000e+00 -9.077588e-06 -3.499494e-04 -3.558631e-04 -3.422226e-06 -5.648445e-06
7.909791e-01 1.836452e-07 4.051566e-04 -2.153248e-05 -7.275958e-12 -8.920991e-06 -3.745195e-04 -3.802003e-04 -1.411686e-05 -7.415612e-06
8.092171e-01 2.121669e-07 4.490107e-04 -3.839919e-05 -7.275958e-12 -8.730771e-06 -4.016686e-04 -4.067480e-04 -2.941768e-05 -8.981504e-06
8.265238e-01 2.408342e-07 5.008623e-04 -6.011995e-05 0.000000e+00 -8.499894e-06 -4.320016e-04 -4.356187e-04 -5.007371e-05 -1.004624e-05
8.428987e-01 2.656889e-07 5.611317e-04 -8.672946e-05 0.000000e+00 -8.221791e-06 -4.659147e-04 -4.666392e-04 -7.621928e-05 -1.051018e-05
8.583488e-01 2.936576e-07 6.294997e-04 -1.178443e-04 0.000000e+00 -7.889185e-06 -5.034726e-04 -4.992122e-04 -1.074351e-04 -1.040920e-05
8.728882e-01 3.108289e-07 7.048871e-04 -1.514543e-04 -3.637979e-12 -7.493089e-06 -5.456288e-04 -5.322284e-04 -1.416200e-04 -9.834301e-06
8.865368e-01 3.165915e-07 7.848683e-04 -1.838197e-04 7.275958e-12 -7.023923e-06 -5.937081e-04 -5.643698e-04 -1.750961e-04 -8.723649e-06
8.993196e-01 2.813176e-07 8.646828e-04 -2.086355e-04 -7.275958e-12 -6.473710e-06 -6.492923e-04 -5.941320e-04 -2.015021e-04 -7.133418e-06
9.112655e-01 1.824810e-07 9.361653e-04 -2.159005e-04 1.818989e-12 -5.838341e-06 -7.142440e-04 -6.193244e-04 -2.107268e-04 -5.173664e-06
9.224067e-01 3.183959e-08 9.869739e-04 -1.916732e-04 9.094947e-12 -5.120440e-06 -7.901484e-04 -6.375375e-04 -1.888812e-04 -2.792058e-06
9.327778e-01 -1.346925e-07 1.001229e-03 -1.230962e-04 2.728484e-12 -4.333092e-06 -8.739347e-04 -6.474242e-04 -1.235357e-04 4.395143e-07
9.424148e-01 -3.359164e-07 9.627066e-04 -4.199656e-06 -8.185452e-12 -3.503050e-06 -9.553398e-04 -6.500255e-04 -9.393276e-06 5.193620e-06
9.513552e-01 -5.054753e-07 8.613943e-04 1.542855e-04 9.094947e-13 -2.671290e-06 -1.013514e-03 -6.507541e-04 1.421532e-04 1.213231e-05
9.596367e-01 -6.647315e-07 7.013220e-04 3.162724e-04 -1.273293e-11 -1.889552e-06 -1.016370e-03 -6.604321e-04 2.944009e-04 2.187151e-05
9.672971e-01 -7.365597e-07 5.051200e-04 4.267266e-04 1.091394e-11 -1.211880e-06 -9.313712e-04 -6.917416e-04 3.919432e-04 3.478338e-05
9.743737e-01 -7.445924e-07 3.098842e-04 4.371488e-04 -7.275958e-12 -6.820961e-07 -7.470954e-04 -7.514047e-04 3.869854e-04 5.016337e-05
9.809031e-01 -7.129274e-07 1.531068e-04 3.432198e-04 7.275958e-12 -3.205109e-07 -4.967189e-04 -8.326856e-04 2.782369e-04 6.498286e-05
9.869211e-01 -6.055343e-07 5.533247e-05 2.049218e-04 -7.275958e-12 -1.154976e-07 -2.607443e-04 -9.170362e-04 1.317365e-04 7.318529e-05
9.924619e-01 -3.905589e-07 1.177641e-05 9.878965e-05 1.455192e-11 -2.688941e-08 -1.109297e-04 -9.934137e-04 3.253201e-05 6.625763e-05
9.975586e-01 -1.514345e-07 6.974987e-07 3.610646e-05 1.818989e-11 -2.613102e-09 -3.695280e-05 -1.103982e-03 1.769234e-06 3.433723e-05
