 TITLE = "nse-3D [F(Z)]"
 VARIABLES = "Z", "U"
 ZONE I = 64, DATAPACKING = POINT, SOLUTIONTIME = 4000.003662
2.441364e-03 -4.888584e-01
7.538072e-03 -4.656152e-01
1.307889e-02 -4.404881e-01
1.909683e-02 -4.136568e-01
2.562631e-02 -3.855467e-01
3.270293e-02 -3.567913e-01
4.036331e-02 -3.281248e-01
4.864483e-02 -3.002535e-01
5.758523e-02 -2.737512e-01
6.722230e-02 -2.490035e-01
7.759330e-02 -2.262047e-01
8.873448e-02 -2.053906e-01
1.006804e-01 -1.864872e-01
1.134632e-01 -1.693537e-01
1.271118e-01 -1.538169e-01
1.416512e-01 -1.396990e-01
1.571013e-01 -1.268273e-01
1.734761e-01 -1.150336e-01
1.907829e-01 -1.041618e-01
2.090209e-01 -9.407564e-02
2.281809e-01 -8.466239e-02
2.482443e-01 -7.582113e-02
2.691821e-01 -6.745200e-02
2.909552e-01 -5.947191e-02
3.135133e-01 -5.181561e-02
3.367956e-01 -4.442044e-02
3.607308e-01 -3.722987e-02
3.852373e-01 -3.020171e-02
4.102251e-01 -2.329612e-02
4.355958e-01 -1.647549e-02
4.612447e-01 -9.703531e-03
4.870627e-01 -2.949328e-03
5.129373e-01 3.811480e-03
5.387553e-01 1.060045e-02
5.644042e-01 1.743480e-02
5.897750e-01 2.432741e-02
6.147627e-01 3.130818e-02
6.392692e-01 3.842837e-02
6.632044e-01 4.572651e-02
6.864867e-01 5.324791e-02
7.090448e-01 6.103574e-02
7.308179e-01 6.913529e-02
7.517557e-01 7.760933e-02
7.718191e-01 8.652909e-02
7.909791e-01 9.597855e-02
8.092171e-01 1.060580e-01
8.265238e-01 1.168946e-01
8.428987e-01 1.286352e-01
8.583488e-01 1.414307e-01
8.728882e-01 1.554410e-01
8.865368e-01 1.708365e-01
8.993196e-01 1.877979e-01
9.112655e-01 2.065033e-01
9.224067e-01 2.271038e-01
9.327778e-01 2.496896e-01
9.424148e-01 2.742394e-01
9.513552e-01 3.005698e-01
9.596367e-01 3.283024e-01
9.672971e-01 3.568680e-01
9.743737e-01 3.855607e-01
9.809031e-01 4.136416e-01
9.869211e-01 4.404674e-01
9.924619e-01 4.656008e-01
9.975586e-01 4.888535e-01
